 VARIABLES="x/H","T","rho","qx"
 ZONE I = 201
    0.000000E+00   1.012013E+00   1.454932E+00  -2.600381E-02
    5.000000E-03   1.021830E+00   1.442001E+00  -2.599826E-02
    1.000000E-02   1.028888E+00   1.432511E+00  -2.599418E-02
    1.500000E-02   1.035407E+00   1.423705E+00  -2.598917E-02
    2.000000E-02   1.041681E+00   1.415255E+00  -2.598555E-02
    2.500000E-02   1.047814E+00   1.407048E+00  -2.598151E-02
    3.000000E-02   1.053855E+00   1.399031E+00  -2.597858E-02
    3.500000E-02   1.059830E+00   1.391176E+00  -2.597669E-02
    4.000000E-02   1.065755E+00   1.383463E+00  -2.597474E-02
    4.500000E-02   1.071638E+00   1.375882E+00  -2.597350E-02
    5.000000E-02   1.077487E+00   1.368424E+00  -2.597300E-02
    5.500000E-02   1.083303E+00   1.361082E+00  -2.597319E-02
    6.000000E-02   1.089092E+00   1.353852E+00  -2.597381E-02
    6.500000E-02   1.094854E+00   1.346729E+00  -2.597502E-02
    7.000000E-02   1.100591E+00   1.339710E+00  -2.597694E-02
    7.500000E-02   1.106304E+00   1.332792E+00  -2.597942E-02
    8.000000E-02   1.111995E+00   1.325971E+00  -2.598257E-02
    8.500000E-02   1.117664E+00   1.319245E+00  -2.598623E-02
    9.000000E-02   1.123312E+00   1.312611E+00  -2.599045E-02
    9.500000E-02   1.128939E+00   1.306067E+00  -2.599524E-02
    1.000000E-01   1.134546E+00   1.299611E+00  -2.600065E-02
    1.050000E-01   1.140133E+00   1.293240E+00  -2.600653E-02
    1.100000E-01   1.145701E+00   1.286953E+00  -2.601302E-02
    1.150000E-01   1.151251E+00   1.280747E+00  -2.601998E-02
    1.200000E-01   1.156782E+00   1.274621E+00  -2.602743E-02
    1.250000E-01   1.162295E+00   1.268573E+00  -2.603536E-02
    1.300000E-01   1.167791E+00   1.262601E+00  -2.604377E-02
    1.350000E-01   1.173269E+00   1.256704E+00  -2.605269E-02
    1.400000E-01   1.178730E+00   1.250879E+00  -2.606198E-02
    1.450000E-01   1.184174E+00   1.245126E+00  -2.607180E-02
    1.500000E-01   1.189602E+00   1.239442E+00  -2.608201E-02
    1.550000E-01   1.195014E+00   1.233826E+00  -2.609260E-02
    1.600000E-01   1.200410E+00   1.228277E+00  -2.610357E-02
    1.650000E-01   1.205790E+00   1.222794E+00  -2.611493E-02
    1.700000E-01   1.211155E+00   1.217375E+00  -2.612667E-02
    1.750000E-01   1.216505E+00   1.212019E+00  -2.613879E-02
    1.800000E-01   1.221840E+00   1.206724E+00  -2.615129E-02
    1.850000E-01   1.227160E+00   1.201490E+00  -2.616400E-02
    1.900000E-01   1.232466E+00   1.196314E+00  -2.617713E-02
    1.950000E-01   1.237758E+00   1.191197E+00  -2.619053E-02
    2.000000E-01   1.243036E+00   1.186136E+00  -2.620421E-02
    2.050000E-01   1.248300E+00   1.181132E+00  -2.621817E-02
    2.100000E-01   1.253550E+00   1.176182E+00  -2.623242E-02
    2.150000E-01   1.258787E+00   1.171285E+00  -2.624694E-02
    2.200000E-01   1.264011E+00   1.166442E+00  -2.626174E-02
    2.250000E-01   1.269222E+00   1.161650E+00  -2.627682E-02
    2.300000E-01   1.274420E+00   1.156909E+00  -2.629201E-02
    2.350000E-01   1.279606E+00   1.152218E+00  -2.630753E-02
    2.400000E-01   1.284779E+00   1.147575E+00  -2.632323E-02
    2.450000E-01   1.289940E+00   1.142981E+00  -2.633911E-02
    2.500000E-01   1.295089E+00   1.138434E+00  -2.635519E-02
    2.550000E-01   1.300225E+00   1.133933E+00  -2.637145E-02
    2.600000E-01   1.305350E+00   1.129478E+00  -2.638789E-02
    2.650000E-01   1.310463E+00   1.125068E+00  -2.640452E-02
    2.700000E-01   1.315565E+00   1.120702E+00  -2.642133E-02
    2.750000E-01   1.320656E+00   1.116379E+00  -2.643833E-02
    2.800000E-01   1.325735E+00   1.112099E+00  -2.645533E-02
    2.850000E-01   1.330803E+00   1.107861E+00  -2.647257E-02
    2.900000E-01   1.335860E+00   1.103664E+00  -2.648991E-02
    2.950000E-01   1.340907E+00   1.099507E+00  -2.650736E-02
    3.000000E-01   1.345942E+00   1.095390E+00  -2.652490E-02
    3.050000E-01   1.350967E+00   1.091313E+00  -2.654255E-02
    3.100000E-01   1.355982E+00   1.087274E+00  -2.656029E-02
    3.150000E-01   1.360986E+00   1.083273E+00  -2.657813E-02
    3.200000E-01   1.365980E+00   1.079309E+00  -2.659607E-02
    3.250000E-01   1.370965E+00   1.075382E+00  -2.661410E-02
    3.300000E-01   1.375939E+00   1.071492E+00  -2.663209E-02
    3.350000E-01   1.380903E+00   1.067637E+00  -2.665024E-02
    3.400000E-01   1.385857E+00   1.063817E+00  -2.666842E-02
    3.450000E-01   1.390801E+00   1.060032E+00  -2.668662E-02
    3.500000E-01   1.395737E+00   1.056281E+00  -2.670485E-02
    3.550000E-01   1.400662E+00   1.052563E+00  -2.672309E-02
    3.600000E-01   1.405578E+00   1.048879E+00  -2.674136E-02
    3.650000E-01   1.410485E+00   1.045227E+00  -2.675964E-02
    3.700000E-01   1.415382E+00   1.041607E+00  -2.677795E-02
    3.750000E-01   1.420270E+00   1.038019E+00  -2.679626E-02
    3.800000E-01   1.425150E+00   1.034462E+00  -2.681459E-02
    3.850000E-01   1.430020E+00   1.030936E+00  -2.683281E-02
    3.900000E-01   1.434881E+00   1.027440E+00  -2.685112E-02
    3.950000E-01   1.439734E+00   1.023974E+00  -2.686938E-02
    4.000000E-01   1.444577E+00   1.020538E+00  -2.688759E-02
    4.050000E-01   1.449412E+00   1.017130E+00  -2.690576E-02
    4.100000E-01   1.454239E+00   1.013752E+00  -2.692387E-02
    4.150000E-01   1.459056E+00   1.010401E+00  -2.694194E-02
    4.200000E-01   1.463866E+00   1.007079E+00  -2.695995E-02
    4.250000E-01   1.468666E+00   1.003784E+00  -2.697790E-02
    4.300000E-01   1.473459E+00   1.000516E+00  -2.699580E-02
    4.350000E-01   1.478243E+00   9.972754E-01  -2.701364E-02
    4.400000E-01   1.483018E+00   9.940609E-01  -2.703142E-02
    4.450000E-01   1.487786E+00   9.908726E-01  -2.704903E-02
    4.500000E-01   1.492545E+00   9.877101E-01  -2.706663E-02
    4.550000E-01   1.497296E+00   9.845731E-01  -2.708412E-02
    4.600000E-01   1.502040E+00   9.814611E-01  -2.710150E-02
    4.650000E-01   1.506775E+00   9.783739E-01  -2.711877E-02
    4.700000E-01   1.511502E+00   9.753113E-01  -2.713592E-02
    4.750000E-01   1.516221E+00   9.722728E-01  -2.715297E-02
    4.800000E-01   1.520932E+00   9.692583E-01  -2.716990E-02
    4.850000E-01   1.525636E+00   9.662673E-01  -2.718671E-02
    4.900000E-01   1.530331E+00   9.632997E-01  -2.720340E-02
    4.950000E-01   1.535019E+00   9.603550E-01  -2.721997E-02
    5.000000E-01   1.539700E+00   9.574331E-01  -2.723635E-02
    5.050000E-01   1.544372E+00   9.545337E-01  -2.725265E-02
    5.100000E-01   1.549037E+00   9.516565E-01  -2.726880E-02
    5.150000E-01   1.553694E+00   9.488013E-01  -2.728479E-02
    5.200000E-01   1.558344E+00   9.459677E-01  -2.730062E-02
    5.250000E-01   1.562986E+00   9.431555E-01  -2.731629E-02
    5.300000E-01   1.567621E+00   9.403646E-01  -2.733179E-02
    5.350000E-01   1.572248E+00   9.375946E-01  -2.734713E-02
    5.400000E-01   1.576867E+00   9.348453E-01  -2.736231E-02
    5.450000E-01   1.581479E+00   9.321164E-01  -2.737732E-02
    5.500000E-01   1.586084E+00   9.294078E-01  -2.739217E-02
    5.550000E-01   1.590681E+00   9.267191E-01  -2.740684E-02
    5.600000E-01   1.595272E+00   9.240503E-01  -2.742129E-02
    5.650000E-01   1.599854E+00   9.214010E-01  -2.743560E-02
    5.700000E-01   1.604430E+00   9.187710E-01  -2.744972E-02
    5.750000E-01   1.608998E+00   9.161602E-01  -2.746363E-02
    5.800000E-01   1.613558E+00   9.135683E-01  -2.747736E-02
    5.850000E-01   1.618112E+00   9.109951E-01  -2.749088E-02
    5.900000E-01   1.622658E+00   9.084404E-01  -2.750420E-02
    5.950000E-01   1.627197E+00   9.059040E-01  -2.751733E-02
    6.000000E-01   1.631729E+00   9.033857E-01  -2.753025E-02
    6.050000E-01   1.636254E+00   9.008854E-01  -2.754298E-02
    6.100000E-01   1.640772E+00   8.984027E-01  -2.755550E-02
    6.150000E-01   1.645282E+00   8.959376E-01  -2.756782E-02
    6.200000E-01   1.649785E+00   8.934899E-01  -2.757989E-02
    6.250000E-01   1.654282E+00   8.910594E-01  -2.759178E-02
    6.300000E-01   1.658771E+00   8.886458E-01  -2.760346E-02
    6.350000E-01   1.663253E+00   8.862491E-01  -2.761491E-02
    6.400000E-01   1.667728E+00   8.838690E-01  -2.762614E-02
    6.450000E-01   1.672196E+00   8.815054E-01  -2.763715E-02
    6.500000E-01   1.676657E+00   8.791581E-01  -2.764794E-02
    6.550000E-01   1.681111E+00   8.768269E-01  -2.765851E-02
    6.600000E-01   1.685557E+00   8.745118E-01  -2.766887E-02
    6.650000E-01   1.689997E+00   8.722124E-01  -2.767900E-02
    6.700000E-01   1.694430E+00   8.699287E-01  -2.768892E-02
    6.750000E-01   1.698856E+00   8.676605E-01  -2.769859E-02
    6.800000E-01   1.703275E+00   8.654077E-01  -2.770805E-02
    6.850000E-01   1.707687E+00   8.631700E-01  -2.771729E-02
    6.900000E-01   1.712092E+00   8.609474E-01  -2.772630E-02
    6.950000E-01   1.716490E+00   8.587397E-01  -2.773508E-02
    7.000000E-01   1.720881E+00   8.565468E-01  -2.774364E-02
    7.050000E-01   1.725266E+00   8.543685E-01  -2.775197E-02
    7.100000E-01   1.729643E+00   8.522046E-01  -2.776008E-02
    7.150000E-01   1.734013E+00   8.500550E-01  -2.776797E-02
    7.200000E-01   1.738377E+00   8.479197E-01  -2.777564E-02
    7.250000E-01   1.742734E+00   8.457984E-01  -2.778308E-02
    7.300000E-01   1.747084E+00   8.436910E-01  -2.779030E-02
    7.350000E-01   1.751427E+00   8.415974E-01  -2.779730E-02
    7.400000E-01   1.755763E+00   8.395174E-01  -2.780408E-02
    7.450000E-01   1.760093E+00   8.374509E-01  -2.781064E-02
    7.500000E-01   1.764415E+00   8.353978E-01  -2.781698E-02
    7.550000E-01   1.768731E+00   8.333580E-01  -2.782311E-02
    7.600000E-01   1.773040E+00   8.313313E-01  -2.782902E-02
    7.650000E-01   1.777343E+00   8.293176E-01  -2.783472E-02
    7.700000E-01   1.781638E+00   8.273168E-01  -2.784020E-02
    7.750000E-01   1.785927E+00   8.253288E-01  -2.784549E-02
    7.800000E-01   1.790210E+00   8.233533E-01  -2.785055E-02
    7.850000E-01   1.794485E+00   8.213904E-01  -2.785541E-02
    7.900000E-01   1.798754E+00   8.194399E-01  -2.786007E-02
    7.950000E-01   1.803017E+00   8.175016E-01  -2.786453E-02
    8.000000E-01   1.807273E+00   8.155754E-01  -2.786879E-02
    8.050000E-01   1.811522E+00   8.136613E-01  -2.787285E-02
    8.100000E-01   1.815765E+00   8.117591E-01  -2.787671E-02
    8.150000E-01   1.820002E+00   8.098687E-01  -2.788038E-02
    8.200000E-01   1.824232E+00   8.079899E-01  -2.788388E-02
    8.250000E-01   1.828456E+00   8.061226E-01  -2.788714E-02
    8.300000E-01   1.832673E+00   8.042668E-01  -2.789023E-02
    8.350000E-01   1.836885E+00   8.024223E-01  -2.789314E-02
    8.400000E-01   1.841090E+00   8.005889E-01  -2.789588E-02
    8.450000E-01   1.845289E+00   7.987666E-01  -2.789843E-02
    8.500000E-01   1.849483E+00   7.969551E-01  -2.790079E-02
    8.550000E-01   1.853670E+00   7.951545E-01  -2.790297E-02
    8.600000E-01   1.857852E+00   7.933645E-01  -2.790496E-02
    8.650000E-01   1.862029E+00   7.915849E-01  -2.790680E-02
    8.700000E-01   1.866200E+00   7.898157E-01  -2.790844E-02
    8.750000E-01   1.870367E+00   7.880568E-01  -2.790992E-02
    8.800000E-01   1.874528E+00   7.863078E-01  -2.791125E-02
    8.850000E-01   1.878686E+00   7.845687E-01  -2.791239E-02
    8.900000E-01   1.882839E+00   7.828392E-01  -2.791334E-02
    8.950000E-01   1.886988E+00   7.811193E-01  -2.791408E-02
    9.000000E-01   1.891134E+00   7.794085E-01  -2.791471E-02
    9.050000E-01   1.895278E+00   7.777067E-01  -2.791510E-02
    9.100000E-01   1.899420E+00   7.760137E-01  -2.791538E-02
    9.150000E-01   1.903561E+00   7.743290E-01  -2.791550E-02
    9.200000E-01   1.907702E+00   7.726522E-01  -2.791540E-02
    9.250000E-01   1.911845E+00   7.709832E-01  -2.791503E-02
    9.300000E-01   1.915990E+00   7.693211E-01  -2.791457E-02
    9.350000E-01   1.920141E+00   7.676656E-01  -2.791385E-02
    9.400000E-01   1.924299E+00   7.660158E-01  -2.791307E-02
    9.450000E-01   1.928469E+00   7.643706E-01  -2.791205E-02
    9.500000E-01   1.932653E+00   7.627291E-01  -2.791061E-02
    9.550000E-01   1.936858E+00   7.610896E-01  -2.790909E-02
    9.600000E-01   1.941091E+00   7.594502E-01  -2.790743E-02
    9.650000E-01   1.945364E+00   7.578076E-01  -2.790562E-02
    9.700000E-01   1.949688E+00   7.561584E-01  -2.790305E-02
    9.750000E-01   1.954089E+00   7.544957E-01  -2.790064E-02
    9.800000E-01   1.958601E+00   7.528100E-01  -2.789822E-02
    9.850000E-01   1.963281E+00   7.510841E-01  -2.789495E-02
    9.900000E-01   1.968245E+00   7.492842E-01  -2.789178E-02
    9.950000E-01   1.973778E+00   7.473217E-01  -2.788765E-02
    1.000000E+00   1.981666E+00   7.445947E-01  -2.788343E-02
