 VARIABLES="x/H","T","rho","qx"
 ZONE I = 201
    0.000000E+00   1.246129E+00   1.134291E+00  -5.017718E-01
    5.000000E-03   1.248859E+00   1.132129E+00  -5.017635E-01
    1.000000E-02   1.251558E+00   1.129997E+00  -5.017549E-01
    1.500000E-02   1.254227E+00   1.127894E+00  -5.017459E-01
    2.000000E-02   1.256867E+00   1.125820E+00  -5.017367E-01
    2.500000E-02   1.259478E+00   1.123774E+00  -5.017272E-01
    3.000000E-02   1.262061E+00   1.121756E+00  -5.017175E-01
    3.500000E-02   1.264618E+00   1.119764E+00  -5.017075E-01
    4.000000E-02   1.267147E+00   1.117798E+00  -5.016973E-01
    4.500000E-02   1.269651E+00   1.115857E+00  -5.016868E-01
    5.000000E-02   1.272130E+00   1.113940E+00  -5.016760E-01
    5.500000E-02   1.274585E+00   1.112048E+00  -5.016650E-01
    6.000000E-02   1.277015E+00   1.110178E+00  -5.016538E-01
    6.500000E-02   1.279422E+00   1.108332E+00  -5.016424E-01
    7.000000E-02   1.281807E+00   1.106508E+00  -5.016307E-01
    7.500000E-02   1.284170E+00   1.104705E+00  -5.016189E-01
    8.000000E-02   1.286511E+00   1.102923E+00  -5.016068E-01
    8.500000E-02   1.288831E+00   1.101162E+00  -5.015945E-01
    9.000000E-02   1.291130E+00   1.099421E+00  -5.015820E-01
    9.500000E-02   1.293410E+00   1.097699E+00  -5.015693E-01
    1.000000E-01   1.295671E+00   1.095997E+00  -5.015565E-01
    1.050000E-01   1.297912E+00   1.094313E+00  -5.015434E-01
    1.100000E-01   1.300135E+00   1.092647E+00  -5.015301E-01
    1.150000E-01   1.302340E+00   1.090999E+00  -5.015167E-01
    1.200000E-01   1.304528E+00   1.089368E+00  -5.015031E-01
    1.250000E-01   1.306698E+00   1.087754E+00  -5.014893E-01
    1.300000E-01   1.308852E+00   1.086156E+00  -5.014754E-01
    1.350000E-01   1.310990E+00   1.084575E+00  -5.014612E-01
    1.400000E-01   1.313112E+00   1.083009E+00  -5.014469E-01
    1.450000E-01   1.315219E+00   1.081458E+00  -5.014325E-01
    1.500000E-01   1.317310E+00   1.079922E+00  -5.014179E-01
    1.550000E-01   1.319388E+00   1.078401E+00  -5.014031E-01
    1.600000E-01   1.321451E+00   1.076894E+00  -5.013882E-01
    1.650000E-01   1.323500E+00   1.075400E+00  -5.013732E-01
    1.700000E-01   1.325535E+00   1.073920E+00  -5.013580E-01
    1.750000E-01   1.327558E+00   1.072454E+00  -5.013426E-01
    1.800000E-01   1.329568E+00   1.071000E+00  -5.013272E-01
    1.850000E-01   1.331565E+00   1.069559E+00  -5.013115E-01
    1.900000E-01   1.333551E+00   1.068130E+00  -5.012958E-01
    1.950000E-01   1.335524E+00   1.066713E+00  -5.012799E-01
    2.000000E-01   1.337486E+00   1.065308E+00  -5.012639E-01
    2.050000E-01   1.339437E+00   1.063914E+00  -5.012477E-01
    2.100000E-01   1.341377E+00   1.062531E+00  -5.012315E-01
    2.150000E-01   1.343307E+00   1.061160E+00  -5.012151E-01
    2.200000E-01   1.345226E+00   1.059799E+00  -5.011985E-01
    2.250000E-01   1.347135E+00   1.058448E+00  -5.011819E-01
    2.300000E-01   1.349034E+00   1.057108E+00  -5.011652E-01
    2.350000E-01   1.350924E+00   1.055777E+00  -5.011483E-01
    2.400000E-01   1.352805E+00   1.054456E+00  -5.011313E-01
    2.450000E-01   1.354677E+00   1.053145E+00  -5.011142E-01
    2.500000E-01   1.356540E+00   1.051843E+00  -5.010970E-01
    2.550000E-01   1.358394E+00   1.050550E+00  -5.010797E-01
    2.600000E-01   1.360241E+00   1.049265E+00  -5.010623E-01
    2.650000E-01   1.362079E+00   1.047990E+00  -5.010447E-01
    2.700000E-01   1.363910E+00   1.046723E+00  -5.010271E-01
    2.750000E-01   1.365733E+00   1.045464E+00  -5.010094E-01
    2.800000E-01   1.367549E+00   1.044213E+00  -5.009915E-01
    2.850000E-01   1.369357E+00   1.042970E+00  -5.009736E-01
    2.900000E-01   1.371159E+00   1.041734E+00  -5.009555E-01
    2.950000E-01   1.372954E+00   1.040507E+00  -5.009374E-01
    3.000000E-01   1.374742E+00   1.039286E+00  -5.009192E-01
    3.050000E-01   1.376525E+00   1.038073E+00  -5.009009E-01
    3.100000E-01   1.378301E+00   1.036867E+00  -5.008824E-01
    3.150000E-01   1.380071E+00   1.035667E+00  -5.008639E-01
    3.200000E-01   1.381835E+00   1.034474E+00  -5.008453E-01
    3.250000E-01   1.383594E+00   1.033288E+00  -5.008266E-01
    3.300000E-01   1.385348E+00   1.032108E+00  -5.008079E-01
    3.350000E-01   1.387096E+00   1.030935E+00  -5.007890E-01
    3.400000E-01   1.388840E+00   1.029767E+00  -5.007700E-01
    3.450000E-01   1.390578E+00   1.028606E+00  -5.007510E-01
    3.500000E-01   1.392312E+00   1.027450E+00  -5.007319E-01
    3.550000E-01   1.394041E+00   1.026300E+00  -5.007127E-01
    3.600000E-01   1.395766E+00   1.025155E+00  -5.006934E-01
    3.650000E-01   1.397487E+00   1.024016E+00  -5.006740E-01
    3.700000E-01   1.399203E+00   1.022883E+00  -5.006545E-01
    3.750000E-01   1.400916E+00   1.021754E+00  -5.006350E-01
    3.800000E-01   1.402625E+00   1.020630E+00  -5.006154E-01
    3.850000E-01   1.404331E+00   1.019512E+00  -5.005957E-01
    3.900000E-01   1.406033E+00   1.018398E+00  -5.005759E-01
    3.950000E-01   1.407731E+00   1.017289E+00  -5.005561E-01
    4.000000E-01   1.409427E+00   1.016184E+00  -5.005361E-01
    4.050000E-01   1.411119E+00   1.015084E+00  -5.005161E-01
    4.100000E-01   1.412809E+00   1.013988E+00  -5.004961E-01
    4.150000E-01   1.414496E+00   1.012897E+00  -5.004759E-01
    4.200000E-01   1.416180E+00   1.011809E+00  -5.004557E-01
    4.250000E-01   1.417862E+00   1.010726E+00  -5.004354E-01
    4.300000E-01   1.419542E+00   1.009647E+00  -5.004150E-01
    4.350000E-01   1.421219E+00   1.008571E+00  -5.003945E-01
    4.400000E-01   1.422894E+00   1.007499E+00  -5.003740E-01
    4.450000E-01   1.424568E+00   1.006431E+00  -5.003534E-01
    4.500000E-01   1.426239E+00   1.005366E+00  -5.003328E-01
    4.550000E-01   1.427909E+00   1.004305E+00  -5.003120E-01
    4.600000E-01   1.429578E+00   1.003247E+00  -5.002912E-01
    4.650000E-01   1.431244E+00   1.002193E+00  -5.002703E-01
    4.700000E-01   1.432910E+00   1.001141E+00  -5.002494E-01
    4.750000E-01   1.434575E+00   1.000093E+00  -5.002284E-01
    4.800000E-01   1.436238E+00   9.990474E-01  -5.002073E-01
    4.850000E-01   1.437900E+00   9.980050E-01  -5.001861E-01
    4.900000E-01   1.439562E+00   9.969653E-01  -5.001649E-01
    4.950000E-01   1.441223E+00   9.959284E-01  -5.001436E-01
    5.000000E-01   1.442883E+00   9.948941E-01  -5.001223E-01
    5.050000E-01   1.444543E+00   9.938624E-01  -5.001009E-01
    5.100000E-01   1.446203E+00   9.928332E-01  -5.000794E-01
    5.150000E-01   1.447862E+00   9.918063E-01  -5.000578E-01
    5.200000E-01   1.449522E+00   9.907818E-01  -5.000362E-01
    5.250000E-01   1.451181E+00   9.897595E-01  -5.000145E-01
    5.300000E-01   1.452841E+00   9.887393E-01  -4.999927E-01
    5.350000E-01   1.454501E+00   9.877212E-01  -4.999709E-01
    5.400000E-01   1.456161E+00   9.867051E-01  -4.999490E-01
    5.450000E-01   1.457822E+00   9.856909E-01  -4.999271E-01
    5.500000E-01   1.459483E+00   9.846786E-01  -4.999051E-01
    5.550000E-01   1.461146E+00   9.836680E-01  -4.998830E-01
    5.600000E-01   1.462809E+00   9.826591E-01  -4.998608E-01
    5.650000E-01   1.464473E+00   9.816517E-01  -4.998386E-01
    5.700000E-01   1.466139E+00   9.806459E-01  -4.998164E-01
    5.750000E-01   1.467805E+00   9.796415E-01  -4.997940E-01
    5.800000E-01   1.469473E+00   9.786385E-01  -4.997716E-01
    5.850000E-01   1.471143E+00   9.776368E-01  -4.997492E-01
    5.900000E-01   1.472814E+00   9.766363E-01  -4.997266E-01
    5.950000E-01   1.474487E+00   9.756370E-01  -4.997040E-01
    6.000000E-01   1.476162E+00   9.746387E-01  -4.996814E-01
    6.050000E-01   1.477839E+00   9.736413E-01  -4.996586E-01
    6.100000E-01   1.479518E+00   9.726449E-01  -4.996359E-01
    6.150000E-01   1.481200E+00   9.716493E-01  -4.996130E-01
    6.200000E-01   1.482884E+00   9.706545E-01  -4.995901E-01
    6.250000E-01   1.484571E+00   9.696604E-01  -4.995671E-01
    6.300000E-01   1.486260E+00   9.686668E-01  -4.995441E-01
    6.350000E-01   1.487952E+00   9.676738E-01  -4.995210E-01
    6.400000E-01   1.489648E+00   9.666812E-01  -4.994978E-01
    6.450000E-01   1.491346E+00   9.656890E-01  -4.994745E-01
    6.500000E-01   1.493048E+00   9.646970E-01  -4.994512E-01
    6.550000E-01   1.494753E+00   9.637053E-01  -4.994279E-01
    6.600000E-01   1.496462E+00   9.627137E-01  -4.994044E-01
    6.650000E-01   1.498174E+00   9.617222E-01  -4.993809E-01
    6.700000E-01   1.499891E+00   9.607306E-01  -4.993574E-01
    6.750000E-01   1.501611E+00   9.597389E-01  -4.993338E-01
    6.800000E-01   1.503336E+00   9.587470E-01  -4.993101E-01
    6.850000E-01   1.505065E+00   9.577549E-01  -4.992863E-01
    6.900000E-01   1.506799E+00   9.567624E-01  -4.992625E-01
    6.950000E-01   1.508538E+00   9.557695E-01  -4.992386E-01
    7.000000E-01   1.510281E+00   9.547760E-01  -4.992146E-01
    7.050000E-01   1.512029E+00   9.537819E-01  -4.991906E-01
    7.100000E-01   1.513783E+00   9.527872E-01  -4.991665E-01
    7.150000E-01   1.515542E+00   9.517916E-01  -4.991424E-01
    7.200000E-01   1.517307E+00   9.507952E-01  -4.991181E-01
    7.250000E-01   1.519078E+00   9.497979E-01  -4.990938E-01
    7.300000E-01   1.520855E+00   9.487995E-01  -4.990695E-01
    7.350000E-01   1.522637E+00   9.478000E-01  -4.990450E-01
    7.400000E-01   1.524427E+00   9.467993E-01  -4.990205E-01
    7.450000E-01   1.526222E+00   9.457972E-01  -4.989960E-01
    7.500000E-01   1.528025E+00   9.447937E-01  -4.989713E-01
    7.550000E-01   1.529835E+00   9.437888E-01  -4.989466E-01
    7.600000E-01   1.531652E+00   9.427822E-01  -4.989218E-01
    7.650000E-01   1.533476E+00   9.417740E-01  -4.988970E-01
    7.700000E-01   1.535308E+00   9.407639E-01  -4.988720E-01
    7.750000E-01   1.537148E+00   9.397520E-01  -4.988470E-01
    7.800000E-01   1.538996E+00   9.387381E-01  -4.988220E-01
    7.850000E-01   1.540853E+00   9.377221E-01  -4.987968E-01
    7.900000E-01   1.542718E+00   9.367039E-01  -4.987716E-01
    7.950000E-01   1.544592E+00   9.356834E-01  -4.987463E-01
    8.000000E-01   1.546475E+00   9.346605E-01  -4.987209E-01
    8.050000E-01   1.548368E+00   9.336351E-01  -4.986954E-01
    8.100000E-01   1.550270E+00   9.326071E-01  -4.986699E-01
    8.150000E-01   1.552182E+00   9.315763E-01  -4.986443E-01
    8.200000E-01   1.554105E+00   9.305427E-01  -4.986186E-01
    8.250000E-01   1.556037E+00   9.295061E-01  -4.985928E-01
    8.300000E-01   1.557981E+00   9.284664E-01  -4.985669E-01
    8.350000E-01   1.559936E+00   9.274236E-01  -4.985410E-01
    8.400000E-01   1.561902E+00   9.263774E-01  -4.985150E-01
    8.450000E-01   1.563880E+00   9.253278E-01  -4.984888E-01
    8.500000E-01   1.565870E+00   9.242747E-01  -4.984626E-01
    8.550000E-01   1.567873E+00   9.232178E-01  -4.984364E-01
    8.600000E-01   1.569888E+00   9.221572E-01  -4.984100E-01
    8.650000E-01   1.571916E+00   9.210926E-01  -4.983835E-01
    8.700000E-01   1.573958E+00   9.200239E-01  -4.983570E-01
    8.750000E-01   1.576013E+00   9.189510E-01  -4.983303E-01
    8.800000E-01   1.578082E+00   9.178738E-01  -4.983036E-01
    8.850000E-01   1.580166E+00   9.167921E-01  -4.982767E-01
    8.900000E-01   1.582265E+00   9.157057E-01  -4.982498E-01
    8.950000E-01   1.584380E+00   9.146146E-01  -4.982228E-01
    9.000000E-01   1.586510E+00   9.135186E-01  -4.981956E-01
    9.050000E-01   1.588656E+00   9.124175E-01  -4.981684E-01
    9.100000E-01   1.590819E+00   9.113112E-01  -4.981410E-01
    9.150000E-01   1.592998E+00   9.101995E-01  -4.981136E-01
    9.200000E-01   1.595196E+00   9.090823E-01  -4.980860E-01
    9.250000E-01   1.597411E+00   9.079594E-01  -4.980584E-01
    9.300000E-01   1.599644E+00   9.068307E-01  -4.980306E-01
    9.350000E-01   1.601897E+00   9.056959E-01  -4.980027E-01
    9.400000E-01   1.604169E+00   9.045550E-01  -4.979747E-01
    9.450000E-01   1.606461E+00   9.034077E-01  -4.979466E-01
    9.500000E-01   1.608773E+00   9.022539E-01  -4.979184E-01
    9.550000E-01   1.611106E+00   9.010934E-01  -4.978900E-01
    9.600000E-01   1.613461E+00   8.999260E-01  -4.978615E-01
    9.650000E-01   1.615837E+00   8.987516E-01  -4.978329E-01
    9.700000E-01   1.618237E+00   8.975699E-01  -4.978042E-01
    9.750000E-01   1.620659E+00   8.963808E-01  -4.977753E-01
    9.800000E-01   1.623106E+00   8.951840E-01  -4.977463E-01
    9.850000E-01   1.625577E+00   8.939794E-01  -4.977172E-01
    9.900000E-01   1.628073E+00   8.927668E-01  -4.976879E-01
    9.950000E-01   1.630595E+00   8.915460E-01  -4.976585E-01
    1.000000E+00   1.633144E+00   8.903167E-01  -4.976289E-01
