 VARIABLES="x/H","T","rho","qx"
 ZONE I = 201
    0.000000E+00   1.364893E+00   1.035953E+00  -6.345072E-01
    5.000000E-03   1.365915E+00   1.035240E+00  -6.345072E-01
    1.000000E-02   1.366790E+00   1.034634E+00  -6.345072E-01
    1.500000E-02   1.367616E+00   1.034064E+00  -6.345072E-01
    2.000000E-02   1.368405E+00   1.033523E+00  -6.345072E-01
    2.500000E-02   1.369163E+00   1.033004E+00  -6.345072E-01
    3.000000E-02   1.369897E+00   1.032502E+00  -6.345072E-01
    3.500000E-02   1.370611E+00   1.032016E+00  -6.345072E-01
    4.000000E-02   1.371308E+00   1.031542E+00  -6.345072E-01
    4.500000E-02   1.371992E+00   1.031078E+00  -6.345072E-01
    5.000000E-02   1.372663E+00   1.030623E+00  -6.345072E-01
    5.500000E-02   1.373325E+00   1.030176E+00  -6.345072E-01
    6.000000E-02   1.373977E+00   1.029736E+00  -6.345072E-01
    6.500000E-02   1.374621E+00   1.029303E+00  -6.345072E-01
    7.000000E-02   1.375257E+00   1.028874E+00  -6.345072E-01
    7.500000E-02   1.375887E+00   1.028451E+00  -6.345072E-01
    8.000000E-02   1.376510E+00   1.028033E+00  -6.345072E-01
    8.500000E-02   1.377128E+00   1.027619E+00  -6.345072E-01
    9.000000E-02   1.377740E+00   1.027210E+00  -6.345072E-01
    9.500000E-02   1.378347E+00   1.026804E+00  -6.345072E-01
    1.000000E-01   1.378949E+00   1.026402E+00  -6.345072E-01
    1.050000E-01   1.379547E+00   1.026004E+00  -6.345072E-01
    1.100000E-01   1.380140E+00   1.025609E+00  -6.345072E-01
    1.150000E-01   1.380729E+00   1.025217E+00  -6.345072E-01
    1.200000E-01   1.381314E+00   1.024828E+00  -6.345072E-01
    1.250000E-01   1.381896E+00   1.024442E+00  -6.345072E-01
    1.300000E-01   1.382474E+00   1.024059E+00  -6.345072E-01
    1.350000E-01   1.383048E+00   1.023679E+00  -6.345072E-01
    1.400000E-01   1.383619E+00   1.023301E+00  -6.345072E-01
    1.450000E-01   1.384187E+00   1.022926E+00  -6.345072E-01
    1.500000E-01   1.384752E+00   1.022553E+00  -6.345072E-01
    1.550000E-01   1.385314E+00   1.022182E+00  -6.345072E-01
    1.600000E-01   1.385873E+00   1.021814E+00  -6.345073E-01
    1.650000E-01   1.386430E+00   1.021447E+00  -6.345073E-01
    1.700000E-01   1.386984E+00   1.021083E+00  -6.345073E-01
    1.750000E-01   1.387535E+00   1.020721E+00  -6.345073E-01
    1.800000E-01   1.388084E+00   1.020360E+00  -6.345073E-01
    1.850000E-01   1.388631E+00   1.020002E+00  -6.345073E-01
    1.900000E-01   1.389176E+00   1.019645E+00  -6.345073E-01
    1.950000E-01   1.389718E+00   1.019290E+00  -6.345073E-01
    2.000000E-01   1.390258E+00   1.018936E+00  -6.345073E-01
    2.050000E-01   1.390797E+00   1.018585E+00  -6.345073E-01
    2.100000E-01   1.391333E+00   1.018234E+00  -6.345073E-01
    2.150000E-01   1.391868E+00   1.017886E+00  -6.345073E-01
    2.200000E-01   1.392401E+00   1.017538E+00  -6.345073E-01
    2.250000E-01   1.392932E+00   1.017193E+00  -6.345073E-01
    2.300000E-01   1.393461E+00   1.016848E+00  -6.345073E-01
    2.350000E-01   1.393989E+00   1.016505E+00  -6.345073E-01
    2.400000E-01   1.394515E+00   1.016163E+00  -6.345073E-01
    2.450000E-01   1.395040E+00   1.015823E+00  -6.345073E-01
    2.500000E-01   1.395563E+00   1.015483E+00  -6.345073E-01
    2.550000E-01   1.396085E+00   1.015145E+00  -6.345073E-01
    2.600000E-01   1.396606E+00   1.014808E+00  -6.345073E-01
    2.650000E-01   1.397125E+00   1.014472E+00  -6.345073E-01
    2.700000E-01   1.397643E+00   1.014137E+00  -6.345073E-01
    2.750000E-01   1.398159E+00   1.013803E+00  -6.345073E-01
    2.800000E-01   1.398675E+00   1.013471E+00  -6.345073E-01
    2.850000E-01   1.399189E+00   1.013139E+00  -6.345073E-01
    2.900000E-01   1.399702E+00   1.012808E+00  -6.345073E-01
    2.950000E-01   1.400214E+00   1.012478E+00  -6.345074E-01
    3.000000E-01   1.400726E+00   1.012149E+00  -6.345074E-01
    3.050000E-01   1.401236E+00   1.011821E+00  -6.345074E-01
    3.100000E-01   1.401745E+00   1.011494E+00  -6.345074E-01
    3.150000E-01   1.402253E+00   1.011168E+00  -6.345074E-01
    3.200000E-01   1.402760E+00   1.010842E+00  -6.345074E-01
    3.250000E-01   1.403266E+00   1.010517E+00  -6.345074E-01
    3.300000E-01   1.403772E+00   1.010193E+00  -6.345074E-01
    3.350000E-01   1.404276E+00   1.009870E+00  -6.345074E-01
    3.400000E-01   1.404780E+00   1.009548E+00  -6.345074E-01
    3.450000E-01   1.405283E+00   1.009226E+00  -6.345074E-01
    3.500000E-01   1.405786E+00   1.008905E+00  -6.345074E-01
    3.550000E-01   1.406287E+00   1.008585E+00  -6.345074E-01
    3.600000E-01   1.406788E+00   1.008265E+00  -6.345074E-01
    3.650000E-01   1.407288E+00   1.007946E+00  -6.345074E-01
    3.700000E-01   1.407788E+00   1.007627E+00  -6.345074E-01
    3.750000E-01   1.408287E+00   1.007309E+00  -6.345074E-01
    3.800000E-01   1.408785E+00   1.006992E+00  -6.345074E-01
    3.850000E-01   1.409283E+00   1.006675E+00  -6.345074E-01
    3.900000E-01   1.409780E+00   1.006359E+00  -6.345074E-01
    3.950000E-01   1.410277E+00   1.006044E+00  -6.345074E-01
    4.000000E-01   1.410773E+00   1.005729E+00  -6.345074E-01
    4.050000E-01   1.411269E+00   1.005414E+00  -6.345074E-01
    4.100000E-01   1.411764E+00   1.005100E+00  -6.345074E-01
    4.150000E-01   1.412259E+00   1.004787E+00  -6.345075E-01
    4.200000E-01   1.412753E+00   1.004473E+00  -6.345075E-01
    4.250000E-01   1.413247E+00   1.004161E+00  -6.345075E-01
    4.300000E-01   1.413740E+00   1.003849E+00  -6.345075E-01
    4.350000E-01   1.414234E+00   1.003537E+00  -6.345075E-01
    4.400000E-01   1.414726E+00   1.003226E+00  -6.345075E-01
    4.450000E-01   1.415219E+00   1.002915E+00  -6.345075E-01
    4.500000E-01   1.415711E+00   1.002604E+00  -6.345075E-01
    4.550000E-01   1.416203E+00   1.002294E+00  -6.345075E-01
    4.600000E-01   1.416694E+00   1.001984E+00  -6.345075E-01
    4.650000E-01   1.417186E+00   1.001674E+00  -6.345075E-01
    4.700000E-01   1.417677E+00   1.001365E+00  -6.345075E-01
    4.750000E-01   1.418168E+00   1.001056E+00  -6.345075E-01
    4.800000E-01   1.418658E+00   1.000748E+00  -6.345075E-01
    4.850000E-01   1.419149E+00   1.000440E+00  -6.345075E-01
    4.900000E-01   1.419639E+00   1.000132E+00  -6.345075E-01
    4.950000E-01   1.420129E+00   9.998240E-01  -6.345075E-01
    5.000000E-01   1.420619E+00   9.995166E-01  -6.345075E-01
    5.050000E-01   1.421109E+00   9.992094E-01  -6.345075E-01
    5.100000E-01   1.421599E+00   9.989025E-01  -6.345075E-01
    5.150000E-01   1.422088E+00   9.985957E-01  -6.345075E-01
    5.200000E-01   1.422578E+00   9.982892E-01  -6.345075E-01
    5.250000E-01   1.423068E+00   9.979829E-01  -6.345075E-01
    5.300000E-01   1.423557E+00   9.976768E-01  -6.345076E-01
    5.350000E-01   1.424047E+00   9.973709E-01  -6.345076E-01
    5.400000E-01   1.424536E+00   9.970651E-01  -6.345076E-01
    5.450000E-01   1.425026E+00   9.967595E-01  -6.345076E-01
    5.500000E-01   1.425516E+00   9.964540E-01  -6.345076E-01
    5.550000E-01   1.426005E+00   9.961486E-01  -6.345076E-01
    5.600000E-01   1.426495E+00   9.958434E-01  -6.345076E-01
    5.650000E-01   1.426985E+00   9.955382E-01  -6.345076E-01
    5.700000E-01   1.427475E+00   9.952332E-01  -6.345076E-01
    5.750000E-01   1.427965E+00   9.949282E-01  -6.345076E-01
    5.800000E-01   1.428455E+00   9.946233E-01  -6.345076E-01
    5.850000E-01   1.428945E+00   9.943185E-01  -6.345076E-01
    5.900000E-01   1.429436E+00   9.940136E-01  -6.345076E-01
    5.950000E-01   1.429927E+00   9.937089E-01  -6.345076E-01
    6.000000E-01   1.430418E+00   9.934041E-01  -6.345076E-01
    6.050000E-01   1.430909E+00   9.930994E-01  -6.345076E-01
    6.100000E-01   1.431401E+00   9.927946E-01  -6.345076E-01
    6.150000E-01   1.431892E+00   9.924898E-01  -6.345076E-01
    6.200000E-01   1.432385E+00   9.921850E-01  -6.345076E-01
    6.250000E-01   1.432877E+00   9.918801E-01  -6.345076E-01
    6.300000E-01   1.433370E+00   9.915752E-01  -6.345076E-01
    6.350000E-01   1.433863E+00   9.912702E-01  -6.345076E-01
    6.400000E-01   1.434356E+00   9.909651E-01  -6.345076E-01
    6.450000E-01   1.434850E+00   9.906599E-01  -6.345076E-01
    6.500000E-01   1.435345E+00   9.903546E-01  -6.345077E-01
    6.550000E-01   1.435839E+00   9.900492E-01  -6.345077E-01
    6.600000E-01   1.436335E+00   9.897436E-01  -6.345077E-01
    6.650000E-01   1.436830E+00   9.894378E-01  -6.345077E-01
    6.700000E-01   1.437327E+00   9.891319E-01  -6.345077E-01
    6.750000E-01   1.437823E+00   9.888258E-01  -6.345077E-01
    6.800000E-01   1.438321E+00   9.885194E-01  -6.345077E-01
    6.850000E-01   1.438819E+00   9.882129E-01  -6.345077E-01
    6.900000E-01   1.439317E+00   9.879061E-01  -6.345077E-01
    6.950000E-01   1.439817E+00   9.875990E-01  -6.345077E-01
    7.000000E-01   1.440316E+00   9.872917E-01  -6.345077E-01
    7.050000E-01   1.440817E+00   9.869841E-01  -6.345077E-01
    7.100000E-01   1.441318E+00   9.866761E-01  -6.345077E-01
    7.150000E-01   1.441820E+00   9.863679E-01  -6.345077E-01
    7.200000E-01   1.442323E+00   9.860593E-01  -6.345077E-01
    7.250000E-01   1.442827E+00   9.857503E-01  -6.345077E-01
    7.300000E-01   1.443332E+00   9.854409E-01  -6.345077E-01
    7.350000E-01   1.443837E+00   9.851311E-01  -6.345077E-01
    7.400000E-01   1.444343E+00   9.848209E-01  -6.345077E-01
    7.450000E-01   1.444851E+00   9.845102E-01  -6.345077E-01
    7.500000E-01   1.445359E+00   9.841990E-01  -6.345077E-01
    7.550000E-01   1.445868E+00   9.838873E-01  -6.345077E-01
    7.600000E-01   1.446378E+00   9.835751E-01  -6.345077E-01
    7.650000E-01   1.446890E+00   9.832623E-01  -6.345077E-01
    7.700000E-01   1.447403E+00   9.829490E-01  -6.345078E-01
    7.750000E-01   1.447916E+00   9.826350E-01  -6.345078E-01
    7.800000E-01   1.448431E+00   9.823204E-01  -6.345078E-01
    7.850000E-01   1.448948E+00   9.820051E-01  -6.345078E-01
    7.900000E-01   1.449465E+00   9.816891E-01  -6.345078E-01
    7.950000E-01   1.449984E+00   9.813724E-01  -6.345078E-01
    8.000000E-01   1.450505E+00   9.810549E-01  -6.345078E-01
    8.050000E-01   1.451027E+00   9.807366E-01  -6.345078E-01
    8.100000E-01   1.451550E+00   9.804175E-01  -6.345078E-01
    8.150000E-01   1.452075E+00   9.800975E-01  -6.345078E-01
    8.200000E-01   1.452602E+00   9.797765E-01  -6.345078E-01
    8.250000E-01   1.453131E+00   9.794546E-01  -6.345078E-01
    8.300000E-01   1.453661E+00   9.791317E-01  -6.345078E-01
    8.350000E-01   1.454193E+00   9.788077E-01  -6.345078E-01
    8.400000E-01   1.454728E+00   9.784826E-01  -6.345078E-01
    8.450000E-01   1.455264E+00   9.781564E-01  -6.345078E-01
    8.500000E-01   1.455802E+00   9.778289E-01  -6.345078E-01
    8.550000E-01   1.456343E+00   9.775002E-01  -6.345078E-01
    8.600000E-01   1.456886E+00   9.771702E-01  -6.345078E-01
    8.650000E-01   1.457431E+00   9.768387E-01  -6.345078E-01
    8.700000E-01   1.457979E+00   9.765058E-01  -6.345078E-01
    8.750000E-01   1.458529E+00   9.761713E-01  -6.345078E-01
    8.800000E-01   1.459082E+00   9.758353E-01  -6.345078E-01
    8.850000E-01   1.459639E+00   9.754975E-01  -6.345078E-01
    8.900000E-01   1.460198E+00   9.751580E-01  -6.345079E-01
    8.950000E-01   1.460760E+00   9.748166E-01  -6.345079E-01
    9.000000E-01   1.461325E+00   9.744732E-01  -6.345079E-01
    9.050000E-01   1.461895E+00   9.741278E-01  -6.345079E-01
    9.100000E-01   1.462467E+00   9.737801E-01  -6.345079E-01
    9.150000E-01   1.463044E+00   9.734300E-01  -6.345079E-01
    9.200000E-01   1.463625E+00   9.730774E-01  -6.345079E-01
    9.250000E-01   1.464210E+00   9.727221E-01  -6.345079E-01
    9.300000E-01   1.464800E+00   9.723638E-01  -6.345079E-01
    9.350000E-01   1.465396E+00   9.720023E-01  -6.345079E-01
    9.400000E-01   1.465997E+00   9.716373E-01  -6.345079E-01
    9.450000E-01   1.466604E+00   9.712683E-01  -6.345079E-01
    9.500000E-01   1.467219E+00   9.708949E-01  -6.345079E-01
    9.550000E-01   1.467841E+00   9.705165E-01  -6.345079E-01
    9.600000E-01   1.468473E+00   9.701322E-01  -6.345079E-01
    9.650000E-01   1.469115E+00   9.697412E-01  -6.345079E-01
    9.700000E-01   1.469770E+00   9.693421E-01  -6.345079E-01
    9.750000E-01   1.470440E+00   9.689332E-01  -6.345079E-01
    9.800000E-01   1.471129E+00   9.685125E-01  -6.345079E-01
    9.850000E-01   1.471840E+00   9.680771E-01  -6.345079E-01
    9.900000E-01   1.472580E+00   9.676232E-01  -6.345079E-01
    9.950000E-01   1.473355E+00   9.671459E-01  -6.345079E-01
    1.000000E+00   1.474241E+00   9.665955E-01  -6.345079E-01
